
    -----------------------------------------------------------------------
          Psi4: An Open-Source Ab Initio Electronic Structure Package
                               Psi4 1.9.1 release

                         Git: Rev {} zzzzzzz 


    D. G. A. Smith, L. A. Burns, A. C. Simmonett, R. M. Parrish,
    M. C. Schieber, R. Galvelis, P. Kraus, H. Kruse, R. Di Remigio,
    A. Alenaizan, A. M. James, S. Lehtola, J. P. Misiewicz, M. Scheurer,
    R. A. Shaw, J. B. Schriber, Y. Xie, Z. L. Glick, D. A. Sirianni,
    J. S. O'Brien, J. M. Waldrop, A. Kumar, E. G. Hohenstein,
    B. P. Pritchard, B. R. Brooks, H. F. Schaefer III, A. Yu. Sokolov,
    K. Patkowski, A. E. DePrince III, U. Bozkaya, R. A. King,
    F. A. Evangelista, J. M. Turney, T. D. Crawford, C. D. Sherrill,
    J. Chem. Phys. 152(18) 184108 (2020). https://doi.org/10.1063/5.0006002

                            Additional Code Authors
    E. T. Seidl, C. L. Janssen, E. F. Valeev, M. L. Leininger,
    J. F. Gonthier, R. M. Richard, H. R. McAlexander, M. Saitow, X. Wang,
    P. Verma, M. H. Lechner, A. Jiang, S. Behnle, A. G. Heide,
    M. F. Herbst, and D. L. Poole

             Previous Authors, Complete List of Code Contributors,
                       and Citations for Specific Modules
    https://github.com/psi4/psi4/blob/master/codemeta.json
    https://github.com/psi4/psi4/graphs/contributors
    http://psicode.org/psi4manual/master/introduction.html#citing-psifour

    -----------------------------------------------------------------------


    Psi4 started on: Tuesday, 07 July 2026 04:09PM

    Process ID: 14553
    Host:       eifel
    PSIDATADIR: /home/karl/miniconda3/envs/psi4/share/psi4
    Memory:     500.0 MiB
    Threads:    1
    
*** tstart() called on eifel
*** at Tue Jul  7 16:09:45 2026

   => Libint2 <=

    Primary   basis highest AM E, G, H:  6, 6, 3
    Auxiliary basis highest AM E, G, H:  7, 7, 4
    Onebody   basis highest AM E, G, H:  -, -, -
    Solid Harmonics ordering:            Gaussian
   => Loading Basis Set <=

    Name: ANONYMOUSA4AD6250
    Role: ORBITAL
    Keyword: BASIS
    atoms 1, 5   entry C          line   119 file /home/karl/miniconda3/envs/psi4/share/psi4/basis/6-311ppgss.gbs 
    atoms 2-4, 7 entry H          line    42 file /home/karl/miniconda3/envs/psi4/share/psi4/basis/6-311ppgss.gbs 
    atoms 6, 8   entry O          line   161 file /home/karl/miniconda3/envs/psi4/share/psi4/basis/6-311ppgss.gbs 


         ---------------------------------------------------------
                                   SCF
               by Justin Turney, Rob Parrish, Andy Simmonett
                          and Daniel G. A. Smith
                              RKS Reference
                        1 Threads,    500 MiB Core
         ---------------------------------------------------------

  ==> Geometry <==

    Molecular point group: c1
    Full point group: C1

    Geometry (in Angstrom), charge = 0, multiplicity = 1:

       Center              X                  Y                   Z               Mass       
    ------------   -----------------  -----------------  -----------------  -----------------
         C            0.448233442587    -0.066289320000    -1.379520687061    12.000000000000
         H           -0.289784227330    -0.628659860000    -1.939700059186     1.007825032230
         H            1.374567453272    -0.628659860000    -1.398919416700     1.007825032230
         H            0.593847982602     0.904858970000    -1.827676159638     1.007825032230
         C           -0.013081066373     0.098493780000     0.040259382624    12.000000000000
         O           -0.207241681776    -1.076209150000     0.637824312220    15.994914619570
         H           -0.497014463597    -0.910166010000     1.529653232350     1.007825032230
         O           -0.193679071131     1.131605100000     0.596082888716    15.994914619570

  Running in c1 symmetry.

  Rotational constants: A =      0.39043  B =      0.31910  C =      0.18142 [cm^-1]
  Rotational constants: A =  11704.88734  B =   9566.37076  C =   5438.92090 [MHz]
  Nuclear repulsion =  122.456331812614820

  Charge       = 0
  Multiplicity = 1
  Electrons    = 32
  Nalpha       = 16
  Nbeta        = 16

  ==> Algorithm <==

  SCF Algorithm Type is DF.
  DIIS enabled.
  MOM disabled.
  Fractional occupation disabled.
  Guess Type is SAD.
  Energy threshold   = 1.00e-06
  Density threshold  = 1.00e-06
  Integral threshold = 1.00e-12

  ==> Primary Basis <==

  Basis Set: ANONYMOUSA4AD6250
    Blend: 6-311++G**
    Number of shells: 60
    Number of basis functions: 116
    Number of Cartesian functions: 120
    Spherical Harmonics?: true
    Max angular momentum: 2

  ==> DFT Potential <==

   => LibXC <=

    Version 7.0.0
    S. Lehtola, C. Steigemann, M. J.T. Oliveira, and M. A.L. Marques.,  SoftwareX 7, 1–5 (2018) (10.1016/j.softx.2017.11.002)

   => Composite Functional: B3LYP <= 

    B3LYP Hyb-GGA Exchange-Correlation Functional

    P. J. Stephens, F. J. Devlin, C. F. Chabalowski, and M. J. Frisch.,  J. Phys. Chem. 98, 11623 (1994) (10.1021/j100096a001)

    Deriv               =              1
    GGA                 =           TRUE
    Meta                =          FALSE

    Exchange Hybrid     =           TRUE
    MP2 Hybrid          =          FALSE

   => Exchange Functionals <=

    0.0800   Slater exchange
    0.7200         Becke 88

   => Exact (HF) Exchange <=

    0.2000               HF 

   => Correlation Functionals <=

    0.1900   Vosko, Wilk & Nusair (VWN5_RPA)
    0.8100   Lee, Yang & Parr

   => LibXC Density Thresholds  <==

    XC_HYB_GGA_XC_B3LYP:  1.00E-15 

   => Molecular Quadrature <=

    Radial Scheme          =       TREUTLER
    Pruning Scheme         =           NONE
    Nuclear Scheme         =       TREUTLER

    Blocking Scheme        =         OCTREE
    BS radius alpha        =              1
    Pruning alpha          =              1
    Radial Points          =             75
    Spherical Points       =            302
    Total Points           =         174012
    Total Blocks           =           1357
    Max Points             =            256
    Max Functions          =            116
    Weights Tolerance      =       1.00E-15

   => Loading Basis Set <=

    Name: (ANONYMOUSA4AD6250 AUX)
    Role: JKFIT
    Keyword: DF_BASIS_SCF
    atoms 1, 5   entry C          line   162 file /home/karl/miniconda3/envs/psi4/share/psi4/basis/aug-cc-pvtz-jkfit.gbs 
    atoms 2-4, 7 entry H          line    70 file /home/karl/miniconda3/envs/psi4/share/psi4/basis/aug-cc-pvtz-jkfit.gbs 
    atoms 6, 8   entry O          line   286 file /home/karl/miniconda3/envs/psi4/share/psi4/basis/aug-cc-pvtz-jkfit.gbs 

  ==> Integral Setup <==

  DFHelper Memory: AOs need 0.065 GiB; user supplied 0.065 GiB. 
  Using in-core AOs.

  ==> MemDFJK: Density-Fitted J/K Matrices <==

    J tasked:                   Yes
    K tasked:                   Yes
    wK tasked:                   No
    OpenMP threads:               1
    Memory [MiB]:                66
    Algorithm:                 Core
    Schwarz Cutoff:           1E-12
    Mask sparsity (%):       0.4162
    Fitting Condition:        1E-10

   => Auxiliary Basis Set <=

  Basis Set: (ANONYMOUSA4AD6250 AUX)
    Blend: AUG-CC-PVTZ-JKFIT
    Number of shells: 176
    Number of basis functions: 600
    Number of Cartesian functions: 744
    Spherical Harmonics?: true
    Max angular momentum: 4

  Cached 50.0% of DFT collocation blocks in 0.245 [GiB].

  Minimum eigenvalue in the overlap matrix is 8.9609264952E-05.
  Reciprocal condition number of the overlap matrix is 8.3344810770E-06.
    Using symmetric orthogonalization.

  ==> Pre-Iterations <==

  SCF Guess: Superposition of Atomic Densities via on-the-fly atomic UHF (no occupation information).

   -------------------------
    Irrep   Nso     Nmo    
   -------------------------
     A        116     116 
   -------------------------
    Total     116     116
   -------------------------

  ==> Iterations <==

                           Total Energy        Delta E     RMS |[F,P]|

   @DF-RKS iter SAD:  -228.60344948164902   -2.28603e+02   0.00000e+00 
   @DF-RKS iter   1:  -228.77744252560996   -1.73993e-01   8.42537e-03 DIIS/ADIIS
   @DF-RKS iter   2:  -228.49464357810075    2.82799e-01   1.08234e-02 DIIS/ADIIS
   @DF-RKS iter   3:  -229.14289951343935   -6.48256e-01   2.00431e-03 DIIS/ADIIS
   @DF-RKS iter   4:  -229.15965268127098   -1.67532e-02   8.47630e-04 DIIS/ADIIS
   @DF-RKS iter   5:  -229.16280093984204   -3.14826e-03   3.06178e-04 DIIS/ADIIS
   @DF-RKS iter   6:  -229.16325325119018   -4.52311e-04   3.72305e-05 DIIS
   @DF-RKS iter   7:  -229.16326024573493   -6.99454e-06   1.35112e-05 DIIS
   @DF-RKS iter   8:  -229.16326121558205   -9.69847e-07   2.63107e-06 DIIS
   @DF-RKS iter   9:  -229.16326125699757   -4.14155e-08   2.97196e-07 DIIS
  Energy and wave function converged.


  ==> Post-Iterations <==

   Electrons on quadrature grid:
      Ntotal   =   31.9999835158 ; deviation = -1.648e-05 

    Orbital Energies [Eh]
    ---------------------

    Doubly Occupied:                                                      

       1A    -19.179419     2A    -19.120570     3A    -10.313019  
       4A    -10.186166     5A     -1.135091     6A     -1.040570  
       7A     -0.771976     8A     -0.634625     9A     -0.503934  
      10A     -0.495818    11A     -0.487866    12A     -0.423792  
      13A     -0.408444    14A     -0.407653    15A     -0.340079  
      16A     -0.292492  

    Virtual:                                                              

      17A     -0.014578    18A     -0.003775    19A      0.008388  
      20A      0.034954    21A      0.037321    22A      0.054249  
      23A      0.073449    24A      0.081745    25A      0.092270  
      26A      0.099076    27A      0.102645    28A      0.121463  
      29A      0.128010    30A      0.162187    31A      0.173609  
      32A      0.177452    33A      0.202767    34A      0.218909  
      35A      0.233970    36A      0.259075    37A      0.274332  
      38A      0.275924    39A      0.292962    40A      0.308917  
      41A      0.316645    42A      0.348358    43A      0.368754  
      44A      0.435628    45A      0.444866    46A      0.483904  
      47A      0.521508    48A      0.544695    49A      0.551061  
      50A      0.631897    51A      0.641515    52A      0.663508  
      53A      0.697874    54A      0.723604    55A      0.844682  
      56A      0.863677    57A      0.986528    58A      1.020188  
      59A      1.057587    60A      1.121395    61A      1.139380  
      62A      1.144564    63A      1.197073    64A      1.236978  
      65A      1.272022    66A      1.378138    67A      1.434343  
      68A      1.463328    69A      1.490730    70A      1.513169  
      71A      1.542101    72A      1.553478    73A      1.570896  
      74A      1.633744    75A      1.754284    76A      1.806421  
      77A      1.841699    78A      1.916777    79A      1.984227  
      80A      2.082242    81A      2.112702    82A      2.205649  
      83A      2.365769    84A      2.461592    85A      2.504625  
      86A      2.520388    87A      2.527036    88A      2.572351  
      89A      2.586552    90A      2.650678    91A      2.837074  
      92A      2.865297    93A      2.906426    94A      3.005814  
      95A      3.063489    96A      3.178286    97A      3.179388  
      98A      3.248882    99A      3.378985   100A      3.601792  
     101A      3.663941   102A      3.789109   103A      3.804770  
     104A      3.882712   105A      4.034785   106A      4.164218  
     107A      4.936352   108A      5.030547   109A      5.156440  
     110A      5.378553   111A      5.620070   112A      5.845817  
     113A     23.838867   114A     23.969364   115A     49.853869  
     116A     50.004758  

    Final Occupation by Irrep:
              A 
    DOCC [    16 ]
    NA   [    16 ]
    NB   [    16 ]

  @DF-RKS Final Energy:  -229.16326125699757

   => Energetics <=

    Nuclear Repulsion Energy =            122.4563318126148204
    One-Electron Energy =                -554.5576481497521399
    Two-Electron Energy =                 226.8794626335881617
    DFT Exchange-Correlation Energy =     -23.9414075534484496
    Empirical Dispersion Energy =           0.0000000000000000
    VV10 Nonlocal Energy =                  0.0000000000000000
    Total Energy =                       -229.1632612569975720

Computation Completed


Properties will be evaluated at   0.000000,   0.000000,   0.000000 [a0]

Properties computed using the B3LYP density matrix


 Multipole Moments:

 ------------------------------------------------------------------------------------
     Multipole            Electronic (a.u.)      Nuclear  (a.u.)        Total (a.u.)
 ------------------------------------------------------------------------------------

 L = 1.  Multiply by 2.5417464519 to convert [e a0] to [Debye]
 Dipole X            :         -1.0130941            1.1058015            0.0927075
 Dipole Y            :          0.5729655           -1.1834077           -0.6104422
 Dipole Z            :          3.1179830           -3.4033072           -0.2853242
 Magnitude           :                                                    0.6801796

 ------------------------------------------------------------------------------------

 Electrostatic potential to be computed on the grid and written to grid_esp.dat

*** tstop() called on eifel at Tue Jul  7 16:09:50 2026
Module time:
	user time   =       4.50 seconds =       0.07 minutes
	system time =       0.07 seconds =       0.00 minutes
	total time  =          5 seconds =       0.08 minutes
Total time:
	user time   =       9.16 seconds =       0.15 minutes
	system time =       0.29 seconds =       0.00 minutes
	total time  =         10 seconds =       0.17 minutes
