
    -----------------------------------------------------------------------
          Psi4: An Open-Source Ab Initio Electronic Structure Package
                               Psi4 1.9.1 release

                         Git: Rev {} zzzzzzz 


    D. G. A. Smith, L. A. Burns, A. C. Simmonett, R. M. Parrish,
    M. C. Schieber, R. Galvelis, P. Kraus, H. Kruse, R. Di Remigio,
    A. Alenaizan, A. M. James, S. Lehtola, J. P. Misiewicz, M. Scheurer,
    R. A. Shaw, J. B. Schriber, Y. Xie, Z. L. Glick, D. A. Sirianni,
    J. S. O'Brien, J. M. Waldrop, A. Kumar, E. G. Hohenstein,
    B. P. Pritchard, B. R. Brooks, H. F. Schaefer III, A. Yu. Sokolov,
    K. Patkowski, A. E. DePrince III, U. Bozkaya, R. A. King,
    F. A. Evangelista, J. M. Turney, T. D. Crawford, C. D. Sherrill,
    J. Chem. Phys. 152(18) 184108 (2020). https://doi.org/10.1063/5.0006002

                            Additional Code Authors
    E. T. Seidl, C. L. Janssen, E. F. Valeev, M. L. Leininger,
    J. F. Gonthier, R. M. Richard, H. R. McAlexander, M. Saitow, X. Wang,
    P. Verma, M. H. Lechner, A. Jiang, S. Behnle, A. G. Heide,
    M. F. Herbst, and D. L. Poole

             Previous Authors, Complete List of Code Contributors,
                       and Citations for Specific Modules
    https://github.com/psi4/psi4/blob/master/codemeta.json
    https://github.com/psi4/psi4/graphs/contributors
    http://psicode.org/psi4manual/master/introduction.html#citing-psifour

    -----------------------------------------------------------------------


    Psi4 started on: Tuesday, 07 July 2026 04:09PM

    Process ID: 14553
    Host:       eifel
    PSIDATADIR: /home/karl/miniconda3/envs/psi4/share/psi4
    Memory:     500.0 MiB
    Threads:    1
    
*** tstart() called on eifel
*** at Tue Jul  7 16:09:40 2026

   => Libint2 <=

    Primary   basis highest AM E, G, H:  6, 6, 3
    Auxiliary basis highest AM E, G, H:  7, 7, 4
    Onebody   basis highest AM E, G, H:  -, -, -
    Solid Harmonics ordering:            Gaussian
   => Loading Basis Set <=

    Name: ANONYMOUS5CC97620
    Role: ORBITAL
    Keyword: BASIS
    atoms 1, 5   entry C          line   119 file /home/karl/miniconda3/envs/psi4/share/psi4/basis/6-311ppgss.gbs 
    atoms 2-4, 7 entry H          line    42 file /home/karl/miniconda3/envs/psi4/share/psi4/basis/6-311ppgss.gbs 
    atoms 6, 8   entry O          line   161 file /home/karl/miniconda3/envs/psi4/share/psi4/basis/6-311ppgss.gbs 


         ---------------------------------------------------------
                                   SCF
               by Justin Turney, Rob Parrish, Andy Simmonett
                          and Daniel G. A. Smith
                              RKS Reference
                        1 Threads,    500 MiB Core
         ---------------------------------------------------------

  ==> Geometry <==

    Molecular point group: cs
    Full point group: Cs

    Geometry (in Angstrom), charge = 0, multiplicity = 1:

       Center              X                  Y                   Z               Mass       
    ------------   -----------------  -----------------  -----------------  -----------------
         C            1.450513890000    -0.066289320000     0.000000000000    12.000000000000
         H            1.755216130000    -0.628659860000    -0.875001460000     1.007825032230
         H            1.755216130000    -0.628659860000     0.875001460000     1.007825032230
         H            1.921732440000     0.904858970000     0.000000000000     1.007825032230
         C           -0.042331220000     0.098493780000     0.000000000000    12.000000000000
         O           -0.670648170000    -1.076209150000     0.000000000000    15.994914619570
         H           -1.608372590000    -0.910166010000     0.000000000000     1.007825032230
         O           -0.626758640000     1.131605100000     0.000000000000    15.994914619570

  Running in cs symmetry.

  Rotational constants: A =      0.39043  B =      0.31910  C =      0.18142 [cm^-1]
  Rotational constants: A =  11704.88734  B =   9566.37076  C =   5438.92090 [MHz]
  Nuclear repulsion =  122.456331812614835

  Charge       = 0
  Multiplicity = 1
  Electrons    = 32
  Nalpha       = 16
  Nbeta        = 16

  ==> Algorithm <==

  SCF Algorithm Type is DF.
  DIIS enabled.
  MOM disabled.
  Fractional occupation disabled.
  Guess Type is SAD.
  Energy threshold   = 1.00e-06
  Density threshold  = 1.00e-06
  Integral threshold = 1.00e-12

  ==> Primary Basis <==

  Basis Set: ANONYMOUS5CC97620
    Blend: 6-311++G**
    Number of shells: 60
    Number of basis functions: 116
    Number of Cartesian functions: 120
    Spherical Harmonics?: true
    Max angular momentum: 2

  ==> DFT Potential <==

   => LibXC <=

    Version 7.0.0
    S. Lehtola, C. Steigemann, M. J.T. Oliveira, and M. A.L. Marques.,  SoftwareX 7, 1–5 (2018) (10.1016/j.softx.2017.11.002)

   => Composite Functional: B3LYP <= 

    B3LYP Hyb-GGA Exchange-Correlation Functional

    P. J. Stephens, F. J. Devlin, C. F. Chabalowski, and M. J. Frisch.,  J. Phys. Chem. 98, 11623 (1994) (10.1021/j100096a001)

    Deriv               =              1
    GGA                 =           TRUE
    Meta                =          FALSE

    Exchange Hybrid     =           TRUE
    MP2 Hybrid          =          FALSE

   => Exchange Functionals <=

    0.0800   Slater exchange
    0.7200         Becke 88

   => Exact (HF) Exchange <=

    0.2000               HF 

   => Correlation Functionals <=

    0.1900   Vosko, Wilk & Nusair (VWN5_RPA)
    0.8100   Lee, Yang & Parr

   => LibXC Density Thresholds  <==

    XC_HYB_GGA_XC_B3LYP:  1.00E-15 

   => Molecular Quadrature <=

    Radial Scheme          =       TREUTLER
    Pruning Scheme         =           NONE
    Nuclear Scheme         =       TREUTLER

    Blocking Scheme        =         OCTREE
    BS radius alpha        =              1
    Pruning alpha          =              1
    Radial Points          =             75
    Spherical Points       =            302
    Total Points           =         174009
    Total Blocks           =           1339
    Max Points             =            256
    Max Functions          =            116
    Weights Tolerance      =       1.00E-15

   => Loading Basis Set <=

    Name: (ANONYMOUS5CC97620 AUX)
    Role: JKFIT
    Keyword: DF_BASIS_SCF
    atoms 1, 5   entry C          line   162 file /home/karl/miniconda3/envs/psi4/share/psi4/basis/aug-cc-pvtz-jkfit.gbs 
    atoms 2-4, 7 entry H          line    70 file /home/karl/miniconda3/envs/psi4/share/psi4/basis/aug-cc-pvtz-jkfit.gbs 
    atoms 6, 8   entry O          line   286 file /home/karl/miniconda3/envs/psi4/share/psi4/basis/aug-cc-pvtz-jkfit.gbs 

  ==> Integral Setup <==

  DFHelper Memory: AOs need 0.065 GiB; user supplied 0.065 GiB. 
  Using in-core AOs.

  ==> MemDFJK: Density-Fitted J/K Matrices <==

    J tasked:                   Yes
    K tasked:                   Yes
    wK tasked:                   No
    OpenMP threads:               1
    Memory [MiB]:                66
    Algorithm:                 Core
    Schwarz Cutoff:           1E-12
    Mask sparsity (%):       0.4162
    Fitting Condition:        1E-10

   => Auxiliary Basis Set <=

  Basis Set: (ANONYMOUS5CC97620 AUX)
    Blend: AUG-CC-PVTZ-JKFIT
    Number of shells: 176
    Number of basis functions: 600
    Number of Cartesian functions: 744
    Spherical Harmonics?: true
    Max angular momentum: 4

  Cached 50.0% of DFT collocation blocks in 0.245 [GiB].

  Minimum eigenvalue in the overlap matrix is 8.9428024159E-05.
  Reciprocal condition number of the overlap matrix is 9.1699170613E-06.
    Using symmetric orthogonalization.

  ==> Pre-Iterations <==

  SCF Guess: Superposition of Atomic Densities via on-the-fly atomic UHF (no occupation information).

   -------------------------
    Irrep   Nso     Nmo    
   -------------------------
     A'        83      83 
     A"        33      33 
   -------------------------
    Total     116     116
   -------------------------

  ==> Iterations <==

                           Total Energy        Delta E     RMS |[F,P]|

   @DF-RKS iter SAD:  -228.60344948116531   -2.28603e+02   0.00000e+00 
   @DF-RKS iter   1:  -228.77744252512059   -1.73993e-01   1.09421e-02 DIIS/ADIIS
   @DF-RKS iter   2:  -228.49464357756995    2.82799e-01   1.40564e-02 DIIS/ADIIS
   @DF-RKS iter   3:  -229.14327467566454   -6.48631e-01   2.57187e-03 DIIS/ADIIS
   @DF-RKS iter   4:  -229.15950178799201   -1.62271e-02   1.12455e-03 DIIS/ADIIS
   @DF-RKS iter   5:  -229.16280272570737   -3.30094e-03   3.97095e-04 DIIS/ADIIS
   @DF-RKS iter   6:  -229.16325320004623   -4.50474e-04   4.85217e-05 DIIS
   @DF-RKS iter   7:  -229.16326025294478   -7.05290e-06   1.74892e-05 DIIS
   @DF-RKS iter   8:  -229.16326121542343   -9.62479e-07   3.40337e-06 DIIS
   @DF-RKS iter   9:  -229.16326125650855   -4.10851e-08   3.85521e-07 DIIS
  Energy and wave function converged.


  ==> Post-Iterations <==

   Electrons on quadrature grid:
      Ntotal   =   31.9999835158 ; deviation = -1.648e-05 

    Orbital Energies [Eh]
    ---------------------

    Doubly Occupied:                                                      

       1Ap   -19.179419     2Ap   -19.120570     3Ap   -10.313019  
       4Ap   -10.186166     5Ap    -1.135091     6Ap    -1.040570  
       7Ap    -0.771976     8Ap    -0.634625     9Ap    -0.503934  
      10Ap    -0.495818     1App   -0.487866    11Ap    -0.423792  
      12Ap    -0.408444     2App   -0.407653     3App   -0.340079  
      13Ap    -0.292492  

    Virtual:                                                              

      14Ap    -0.014578     4App   -0.003775    15Ap     0.008388  
       5App    0.034954    16Ap     0.037321    17Ap     0.054249  
      18Ap     0.073449     6App    0.081745    19Ap     0.092270  
       7App    0.099076    20Ap     0.102645    21Ap     0.121463  
      22Ap     0.128010    23Ap     0.162187    24Ap     0.173609  
       8App    0.177452    25Ap     0.202767     9App    0.218909  
      26Ap     0.233970    27Ap     0.259075    10App    0.274332  
      28Ap     0.275924    29Ap     0.292962    30Ap     0.308917  
      31Ap     0.316645    32Ap     0.348358    33Ap     0.368754  
      11App    0.435628    34Ap     0.444866    35Ap     0.483904  
      36Ap     0.521508    37Ap     0.544695    12App    0.551061  
      13App    0.631897    38Ap     0.641515    39Ap     0.663508  
      40Ap     0.697874    41Ap     0.723604    42Ap     0.844682  
      43Ap     0.863677    14App    0.986528    15App    1.020188  
      44Ap     1.057587    45Ap     1.121395    16App    1.139380  
      46Ap     1.144564    47Ap     1.197073    17App    1.236978  
      48Ap     1.272022    18App    1.378138    19App    1.434343  
      49Ap     1.463328    20App    1.490730    50Ap     1.513169  
      51Ap     1.542101    21App    1.553478    52Ap     1.570896  
      53Ap     1.633744    54Ap     1.754284    55Ap     1.806421  
      22App    1.841699    56Ap     1.916777    57Ap     1.984227  
      58Ap     2.082242    59Ap     2.112702    23App    2.205649  
      60Ap     2.365769    61Ap     2.461592    24App    2.504625  
      62Ap     2.520388    25App    2.527036    63Ap     2.572351  
      64Ap     2.586552    26App    2.650678    65Ap     2.837074  
      27App    2.865297    66Ap     2.906426    67Ap     3.005814  
      28App    3.063489    68Ap     3.178286    29App    3.179388  
      69Ap     3.248882    30App    3.378985    70Ap     3.601792  
      71Ap     3.663941    72Ap     3.789109    31App    3.804770  
      73Ap     3.882712    74Ap     4.034785    75Ap     4.164218  
      32App    4.936352    33App    5.030547    76Ap     5.156440  
      77Ap     5.378553    78Ap     5.620070    79Ap     5.845817  
      80Ap    23.838867    81Ap    23.969364    82Ap    49.853869  
      83Ap    50.004758  

    Final Occupation by Irrep:
             Ap   App 
    DOCC [    13,    3 ]
    NA   [    13,    3 ]
    NB   [    13,    3 ]

  @DF-RKS Final Energy:  -229.16326125650855

   => Energetics <=

    Nuclear Repulsion Energy =            122.4563318126148346
    One-Electron Energy =                -554.5576492571615290
    Two-Electron Energy =                 226.8794638627672953
    DFT Exchange-Correlation Energy =     -23.9414076747291595
    Empirical Dispersion Energy =           0.0000000000000000
    VV10 Nonlocal Energy =                  0.0000000000000000
    Total Energy =                       -229.1632612565085481

Computation Completed


Properties will be evaluated at   0.000000,   0.000000,   0.000000 [a0]

Properties computed using the B3LYP density matrix


 Multipole Moments:

 ------------------------------------------------------------------------------------
     Multipole            Electronic (a.u.)      Nuclear  (a.u.)        Total (a.u.)
 ------------------------------------------------------------------------------------

 L = 1.  Multiply by 2.5417464519 to convert [e a0] to [Debye]
 Dipole X            :         -3.2784413            3.5784490            0.3000077
 Dipole Y            :          0.5729655           -1.1834077           -0.6104422
 Dipole Z            :          0.0000000            0.0000000            0.0000000
 Magnitude           :                                                    0.6801796

 ------------------------------------------------------------------------------------

 Electrostatic potential to be computed on the grid and written to grid_esp.dat

*** tstop() called on eifel at Tue Jul  7 16:09:45 2026
Module time:
	user time   =       4.61 seconds =       0.08 minutes
	system time =       0.21 seconds =       0.00 minutes
	total time  =          5 seconds =       0.08 minutes
Total time:
	user time   =       4.61 seconds =       0.08 minutes
	system time =       0.21 seconds =       0.00 minutes
	total time  =          5 seconds =       0.08 minutes
