
    -----------------------------------------------------------------------
          Psi4: An Open-Source Ab Initio Electronic Structure Package
                               Psi4 1.11 release

                         Git: Rev {} zzzzzzz 


    D. G. A. Smith, L. A. Burns, A. C. Simmonett, R. M. Parrish,
    M. C. Schieber, R. Galvelis, P. Kraus, H. Kruse, R. Di Remigio,
    A. Alenaizan, A. M. James, S. Lehtola, J. P. Misiewicz, M. Scheurer,
    R. A. Shaw, J. B. Schriber, Y. Xie, Z. L. Glick, D. A. Sirianni,
    J. S. O'Brien, J. M. Waldrop, A. Kumar, E. G. Hohenstein,
    B. P. Pritchard, B. R. Brooks, H. F. Schaefer III, A. Yu. Sokolov,
    K. Patkowski, A. E. DePrince III, U. Bozkaya, R. A. King,
    F. A. Evangelista, J. M. Turney, T. D. Crawford, C. D. Sherrill,
    J. Chem. Phys. 152(18) 184108 (2020). https://doi.org/10.1063/5.0006002

                            Additional Code Authors
    E. T. Seidl, C. L. Janssen, E. F. Valeev, M. L. Leininger,
    J. F. Gonthier, R. M. Richard, H. R. McAlexander, M. Saitow, X. Wang,
    P. Verma, M. H. Lechner, A. Jiang, S. Behnle, A. G. Heide,
    M. F. Herbst, D. L. Poole, T. Győri, E. C. Mitchell, J. P. Pederson,
    and A. M. Wallace

             Previous Authors, Complete List of Code Contributors,
                       and Citations for Specific Modules
    https://github.com/psi4/psi4/blob/master/codemeta.json
    https://github.com/psi4/psi4/graphs/contributors
    https://psicode.org/psi4manual/master/introduction.html#citing-psifour

    -----------------------------------------------------------------------


    Psi4 started on: Thursday, 09 July 2026 08:46AM

    Process ID: 12243
    Host:       eifel
    PSIDATADIR: /home/karl/miniconda3/envs/resp_ep/share/psi4
    Memory:     500.0 MiB
    Threads:    1
    Addons:     a̶d̶c̶c̶, a̶m̶b̶i̶t̶, b̶s̶e̶, c̶c̶t̶3̶, c̶f̶o̶u̶r̶, c̶h̶e̶m̶p̶s̶2̶, c̶p̶p̶e̶, d̶d̶x̶,
                d̶f̶t̶d̶3̶, d̶f̶t̶d̶4̶, dkh, ecpint, einsums, f̶o̶r̶t̶e̶, gauxc, g̶c̶p̶,
                g̶d̶m̶a̶, g̶e̶o̶m̶e̶t̶r̶i̶c̶, g̶p̶u̶_̶d̶f̶c̶c̶, i̶n̶t̶e̶g̶r̶a̶t̶o̶r̶x̶x̶,
                i̶p̶i̶, l̶i̶b̶e̶f̶p̶, m̶d̶i̶, m̶p̶2̶d̶, m̶r̶c̶c̶, ooo,
                o̶p̶e̶n̶f̶e̶r̶m̶i̶o̶n̶p̶s̶i̶4̶, pcmsolver, p̶s̶i̶4̶f̶o̶c̶k̶c̶i̶, p̶s̶i̶x̶a̶s̶,
                p̶y̶e̶i̶n̶s̶u̶m̶s̶, r̶e̶s̶p̶, s̶i̶m̶i̶n̶t̶, s̶n̶s̶m̶p̶2̶,
                v̶2̶r̶d̶m̶_̶c̶a̶s̶s̶c̶f̶

*** tstart() called on eifel
*** at Thu Jul  9 08:46:59 2026

   => Libint2 <=

    Primary   basis highest AM E, G, H:  7, 6, 3
    Auxiliary basis highest AM E, G, H:  7, 7, 4
    Onebody   basis highest AM E, G, H:  -, -, -
    Solid Harmonics ordering:            Gaussian
   => Loading Basis Set <=

    Name: ANONYMOUS75D50969
    Role: ORBITAL
    Keyword: BASIS
    atoms 1, 5, 8, 11           entry C          line   111 file /home/karl/miniconda3/envs/resp_ep/share/psi4/basis/6-31gs.gbs 
    atoms 2-4, 6-7, 9-10, 12-13 entry H          line    44 file /home/karl/miniconda3/envs/resp_ep/share/psi4/basis/6-31gs.gbs 
    atoms 14                    entry BR         line   968 file /home/karl/miniconda3/envs/resp_ep/share/psi4/basis/6-31gs.gbs 


         ---------------------------------------------------------
                                   SCF
               by Justin Turney, Rob Parrish, Andy Simmonett
                          and Daniel G. A. Smith
                              RHF Reference
                        1 Threads,    500 MiB Core
         ---------------------------------------------------------

  ==> Geometry <==

    Molecular point group: c1
    Full point group: C1

    Geometry (in Angstrom), charge = 0, multiplicity = 1:

       Center              X                  Y                   Z               Mass       
    ------------   -----------------  -----------------  -----------------  -----------------
         C           -3.919660851715    -0.257077448363     0.132067184938    12.000000000000
         H           -4.747683970076    -0.897982207172     0.416805824123     1.007825032230
         H           -4.015970485674     0.673974847787     0.682528742446     1.007825032230
         H           -4.023965569434    -0.029709391939    -0.924609524001     1.007825032230
         C           -2.579118036236    -0.932047321321     0.420931955978    12.000000000000
         H           -2.526754339081    -1.875747127646    -0.117198099642     1.007825032230
         H           -2.518818641426    -1.176899301152     1.478904023454     1.007825032230
         C           -1.386547358026    -0.052464583682     0.029884588431    12.000000000000
         H           -1.428600311145     0.887550207547     0.570428035328     1.007825032230
         H           -1.436535574265     0.188058751018    -1.027107572482     1.007825032230
         C           -0.067923497949    -0.746982348910     0.327434901029    12.000000000000
         H            0.055045495934    -0.955270169973     1.378178227889     1.007825032230
         H            0.047022984501    -1.660828442081    -0.233135376080     1.007825032230
         BR           1.472362790107     0.364270724838    -0.166831022204    78.918337600000

  Running in c1 symmetry.

  Rotational constants: A =      0.53587  B =      0.03024  C =      0.02924 [cm^-1]
  Rotational constants: A =  16065.07685  B =    906.59791  C =    876.54470 [MHz]
  Nuclear repulsion =  309.695910130451296

  Charge       = 0
  Multiplicity = 1
  Electrons    = 68
  Nalpha       = 34
  Nbeta        = 34

  ==> Algorithm <==

  SCF Algorithm Type is DF.
  DIIS enabled.
  MOM disabled.
  Fractional occupation disabled.
  Guess Type is SAD.
  Energy threshold   = 1.00e-06
  Density threshold  = 1.00e-06
  Integral threshold = 1.00e-12

  ==> Primary Basis <==

  Basis Set: ANONYMOUS75D50969
    Blend: 6-31G*
    Number of shells: 54
    Number of basis functions: 113
    Number of Cartesian functions: 113
    Spherical Harmonics?: false
    Max angular momentum: 2

   => Loading Basis Set <=

    Name: (ANONYMOUS75D50969 AUX)
    Role: JKFIT
    Keyword: DF_BASIS_SCF
    atoms 1, 5, 8, 11           entry C          line   121 file /home/karl/miniconda3/envs/resp_ep/share/psi4/basis/cc-pvdz-jkfit.gbs 
    atoms 2-4, 6-7, 9-10, 12-13 entry H          line    51 file /home/karl/miniconda3/envs/resp_ep/share/psi4/basis/cc-pvdz-jkfit.gbs 
    atoms 14                    entry BR         line  1219 file /home/karl/miniconda3/envs/resp_ep/share/psi4/basis/cc-pvdz-jkfit.gbs 

  ==> Integral Setup <==

  DFHelper Memory: AOs need 0.072 GiB; user supplied 0.366 GiB. 
  SCF_SUBTYPE=INCORE selected. In-core MEM_DF algorithm will be used.
  Using in-core AOs.

  ==> MemDFJK: Density-Fitted J/K Matrices <==

    J tasked:                   Yes
    K tasked:                   Yes
    wK tasked:                   No
    OpenMP threads:               1
    Memory [MiB]:               375
    Algorithm:                 Core
    Schwarz Cutoff:           1E-12
    Mask sparsity (%):       9.5701
    Fitting Condition:        1E-10

   => Auxiliary Basis Set <=

  Basis Set: (ANONYMOUS75D50969 AUX)
    Blend: CC-PVDZ-JKFIT
    Number of shells: 224
    Number of basis functions: 758
    Number of Cartesian functions: 758
    Spherical Harmonics?: false
    Max angular momentum: 3

  Minimum eigenvalue in the overlap matrix is 7.2318980348E-04.
  Reciprocal condition number of the overlap matrix is 9.9859551371E-05.
    Using symmetric orthogonalization.

  ==> Pre-Iterations <==

  SCF Guess: Superposition of Atomic Densities via on-the-fly atomic UHF (no occupation information).

   -------------------------
    Irrep   Nso     Nmo    
   -------------------------
     A        113     113 
   -------------------------
    Total     113     113
   -------------------------

  ==> Iterations <==

                           Total Energy        Delta E     RMS |[F,P]|

   @DF-RHF iter SAD: -2725.79764590486411   -2.72580e+03   0.00000e+00 
   @DF-RHF iter   1: -2727.87469592028401   -2.07705e+00   1.13369e-02 ADIIS/DIIS
   @DF-RHF iter   2: -2728.08570912990172   -2.11013e-01   6.45088e-03 ADIIS/DIIS
   @DF-RHF iter   3: -2728.15019671914160   -6.44876e-02   4.21176e-04 ADIIS/DIIS
   @DF-RHF iter   4: -2728.15161283935095   -1.41612e-03   1.10540e-04 ADIIS/DIIS
   @DF-RHF iter   5: -2728.15172608510284   -1.13246e-04   2.93069e-05 DIIS
   @DF-RHF iter   6: -2728.15173448399810   -8.39890e-06   6.83335e-06 DIIS
   @DF-RHF iter   7: -2728.15173500460878   -5.20611e-07   1.78723e-06 DIIS
   @DF-RHF iter   8: -2728.15173505248822   -4.78794e-08   7.01985e-07 DIIS
  Energy and wave function converged.


  ==> Post-Iterations <==

    Orbital Energies [Eh]
    ---------------------

    Doubly Occupied:                                                      

       1A   -490.081620     2A    -65.239092     3A    -58.601539  
       4A    -58.599953     5A    -58.599945     6A    -11.290755  
       7A    -11.237108     8A    -11.233375     9A    -11.220855  
      10A     -9.862918    11A     -7.474883    12A     -7.466493  
      13A     -7.466435    14A     -3.058257    15A     -3.054343  
      16A     -3.054303    17A     -3.045120    18A     -3.045116  
      19A     -1.107743    20A     -1.040833    21A     -0.955887  
      22A     -0.855980    23A     -0.813185    24A     -0.671647  
      25A     -0.607936    26A     -0.606827    27A     -0.568931  
      28A     -0.529221    29A     -0.528580    30A     -0.495884  
      31A     -0.485021    32A     -0.459939    33A     -0.394816  
      34A     -0.393742  

    Virtual:                                                              

      35A      0.156391    36A      0.223360    37A      0.251168  
      38A      0.262935    39A      0.281212    40A      0.313398  
      41A      0.317119    42A      0.318120    43A      0.334467  
      44A      0.342357    45A      0.377661    46A      0.403360  
      47A      0.408346    48A      0.422235    49A      0.516241  
      50A      0.516298    51A      0.535392    52A      0.663083  
      53A      0.694581    54A      0.696008    55A      0.737407  
      56A      0.744626    57A      0.799241    58A      0.814766  
      59A      0.855617    60A      0.856970    61A      0.902540  
      62A      0.936598    63A      0.983734    64A      1.020255  
      65A      1.061842    66A      1.088280    67A      1.109077  
      68A      1.125893    69A      1.153453    70A      1.170792  
      71A      1.179006    72A      1.190061    73A      1.202951  
      74A      1.211235    75A      1.223101    76A      1.255655  
      77A      1.301508    78A      1.372441    79A      1.596770  
      80A      1.683561    81A      1.718172    82A      1.744296  
      83A      1.898404    84A      1.930925    85A      2.076331  
      86A      2.108829    87A      2.176328    88A      2.205837  
      89A      2.248677    90A      2.260980    91A      2.316997  
      92A      2.355735    93A      2.457461    94A      2.585016  
      95A      2.588354    96A      2.599346    97A      2.725080  
      98A      2.726349    99A      2.743829   100A      2.892141  
     101A      3.003967   102A      3.098339   103A      4.530761  
     104A      4.640149   105A      4.768031   106A      4.925626  
     107A      5.376217   108A      5.386180   109A      5.448794  
     110A      5.450511   111A      5.626340   112A      6.816747  
     113A     92.369582  

    Final Occupation by Irrep:
              A 
    DOCC [    34 ]
    NA   [    34 ]
    NB   [    34 ]

  @DF-RHF Final Energy: -2728.15173505248822

   => Energetics <=

    Nuclear Repulsion Energy =            309.6959101304512956
    One-Electron Energy =               -4407.3992834934115308
    Two-Electron Energy =                1369.5516383104722991
    Total Energy =                      -2728.1517350524882204

Computation Completed


Properties will be evaluated at   0.000000,   0.000000,   0.000000 [a0]

Properties computed using the HF density matrix


 Multipole Moments:

 ------------------------------------------------------------------------------------
     Multipole            Electronic (a.u.)      Nuclear  (a.u.)        Total (a.u.)
 ------------------------------------------------------------------------------------

 L = 1.  Multiply by 2.5417464519 to convert [e a0] to [Debye]
 Dipole X            :         30.8032491          -31.7153893           -0.9121402
 Dipole Y            :          7.1064715           -7.6133431           -0.5068717
 Dipole Z            :         -3.2650080            3.4914963            0.2264884
 Magnitude           :                                                    1.0678088

 ------------------------------------------------------------------------------------

 Electrostatic potential to be computed on the grid and written to grid_esp.dat

*** tstop() called on eifel at Thu Jul  9 08:47:00 2026
Module time:
	user time   =       1.32 seconds =       0.02 minutes
	system time =       0.07 seconds =       0.00 minutes
	total time  =          1 seconds =       0.02 minutes
Total time:
	user time   =       5.50 seconds =       0.09 minutes
	system time =       0.34 seconds =       0.01 minutes
	total time  =          6 seconds =       0.10 minutes
