
    -----------------------------------------------------------------------
          Psi4: An Open-Source Ab Initio Electronic Structure Package
                               Psi4 1.9.1 release

                         Git: Rev {} zzzzzzz 


    D. G. A. Smith, L. A. Burns, A. C. Simmonett, R. M. Parrish,
    M. C. Schieber, R. Galvelis, P. Kraus, H. Kruse, R. Di Remigio,
    A. Alenaizan, A. M. James, S. Lehtola, J. P. Misiewicz, M. Scheurer,
    R. A. Shaw, J. B. Schriber, Y. Xie, Z. L. Glick, D. A. Sirianni,
    J. S. O'Brien, J. M. Waldrop, A. Kumar, E. G. Hohenstein,
    B. P. Pritchard, B. R. Brooks, H. F. Schaefer III, A. Yu. Sokolov,
    K. Patkowski, A. E. DePrince III, U. Bozkaya, R. A. King,
    F. A. Evangelista, J. M. Turney, T. D. Crawford, C. D. Sherrill,
    J. Chem. Phys. 152(18) 184108 (2020). https://doi.org/10.1063/5.0006002

                            Additional Code Authors
    E. T. Seidl, C. L. Janssen, E. F. Valeev, M. L. Leininger,
    J. F. Gonthier, R. M. Richard, H. R. McAlexander, M. Saitow, X. Wang,
    P. Verma, M. H. Lechner, A. Jiang, S. Behnle, A. G. Heide,
    M. F. Herbst, and D. L. Poole

             Previous Authors, Complete List of Code Contributors,
                       and Citations for Specific Modules
    https://github.com/psi4/psi4/blob/master/codemeta.json
    https://github.com/psi4/psi4/graphs/contributors
    http://psicode.org/psi4manual/master/introduction.html#citing-psifour

    -----------------------------------------------------------------------


    Psi4 started on: Wednesday, 29 April 2026 04:40PM

    Process ID: 5876
    Host:       adirondacks
    PSIDATADIR: /home/karl/conda/envs/psi4/share/psi4
    Memory:     500.0 MiB
    Threads:    1
    
*** tstart() called on adirondacks
*** at Wed Apr 29 16:40:16 2026

   => Libint2 <=

    Primary   basis highest AM E, G, H:  6, 6, 3
    Auxiliary basis highest AM E, G, H:  7, 7, 4
    Onebody   basis highest AM E, G, H:  -, -, -
    Solid Harmonics ordering:            Gaussian
   => Loading Basis Set <=

    Name: ANONYMOUS34B272A2
    Role: ORBITAL
    Keyword: BASIS
    atoms 1, 5   entry C          line   111 file /home/karl/conda/envs/psi4/share/psi4/basis/6-31gs.gbs 
    atoms 2-4, 7 entry H          line    44 file /home/karl/conda/envs/psi4/share/psi4/basis/6-31gs.gbs 
    atoms 6, 8   entry O          line   145 file /home/karl/conda/envs/psi4/share/psi4/basis/6-31gs.gbs 


         ---------------------------------------------------------
                                   SCF
               by Justin Turney, Rob Parrish, Andy Simmonett
                          and Daniel G. A. Smith
                              RHF Reference
                        1 Threads,    500 MiB Core
         ---------------------------------------------------------

  ==> Geometry <==

    Molecular point group: cs
    Full point group: Cs

    Geometry (in Angstrom), charge = 0, multiplicity = 1:

       Center              X                  Y                   Z               Mass       
    ------------   -----------------  -----------------  -----------------  -----------------
         C            1.450513890000    -0.066289320000     0.000000000000    12.000000000000
         H            1.755216130000    -0.628659860000    -0.875001460000     1.007825032230
         H            1.755216130000    -0.628659860000     0.875001460000     1.007825032230
         H            1.921732440000     0.904858970000     0.000000000000     1.007825032230
         C           -0.042331220000     0.098493780000     0.000000000000    12.000000000000
         O           -0.670648170000    -1.076209150000     0.000000000000    15.994914619570
         H           -1.608372590000    -0.910166010000     0.000000000000     1.007825032230
         O           -0.626758640000     1.131605100000     0.000000000000    15.994914619570

  Running in cs symmetry.

  Rotational constants: A =      0.39043  B =      0.31910  C =      0.18142 [cm^-1]
  Rotational constants: A =  11704.88734  B =   9566.37076  C =   5438.92090 [MHz]
  Nuclear repulsion =  122.456331812614835

  Charge       = 0
  Multiplicity = 1
  Electrons    = 32
  Nalpha       = 16
  Nbeta        = 16

  ==> Algorithm <==

  SCF Algorithm Type is DF.
  DIIS enabled.
  MOM disabled.
  Fractional occupation disabled.
  Guess Type is SAD.
  Energy threshold   = 1.00e-06
  Density threshold  = 1.00e-06
  Integral threshold = 1.00e-12

  ==> Primary Basis <==

  Basis Set: ANONYMOUS34B272A2
    Blend: 6-31G*
    Number of shells: 32
    Number of basis functions: 68
    Number of Cartesian functions: 68
    Spherical Harmonics?: false
    Max angular momentum: 2

   => Loading Basis Set <=

    Name: (ANONYMOUS34B272A2 AUX)
    Role: JKFIT
    Keyword: DF_BASIS_SCF
    atoms 1, 5   entry C          line   121 file /home/karl/conda/envs/psi4/share/psi4/basis/cc-pvdz-jkfit.gbs 
    atoms 2-4, 7 entry H          line    51 file /home/karl/conda/envs/psi4/share/psi4/basis/cc-pvdz-jkfit.gbs 
    atoms 6, 8   entry O          line   221 file /home/karl/conda/envs/psi4/share/psi4/basis/cc-pvdz-jkfit.gbs 

  ==> Integral Setup <==

  DFHelper Memory: AOs need 0.017 GiB; user supplied 0.366 GiB. 
  Using in-core AOs.

  ==> MemDFJK: Density-Fitted J/K Matrices <==

    J tasked:                   Yes
    K tasked:                   Yes
    wK tasked:                   No
    OpenMP threads:               1
    Memory [MiB]:               375
    Algorithm:                 Core
    Schwarz Cutoff:           1E-12
    Mask sparsity (%):       0.1298
    Fitting Condition:        1E-10

   => Auxiliary Basis Set <=

  Basis Set: (ANONYMOUS34B272A2 AUX)
    Blend: CC-PVDZ-JKFIT
    Number of shells: 132
    Number of basis functions: 424
    Number of Cartesian functions: 424
    Spherical Harmonics?: false
    Max angular momentum: 3

  Minimum eigenvalue in the overlap matrix is 4.2608135153E-03.
  Reciprocal condition number of the overlap matrix is 6.4577348776E-04.
    Using symmetric orthogonalization.

  ==> Pre-Iterations <==

  SCF Guess: Superposition of Atomic Densities via on-the-fly atomic UHF (no occupation information).

   -------------------------
    Irrep   Nso     Nmo    
   -------------------------
     A'        50      50 
     A"        18      18 
   -------------------------
    Total      68      68
   -------------------------

  ==> Iterations <==

                           Total Energy        Delta E     RMS |[F,P]|

   @DF-RHF iter SAD:  -227.05485235136345   -2.27055e+02   0.00000e+00 
   @DF-RHF iter   1:  -227.67394837575034   -6.19096e-01   1.03326e-02 DIIS/ADIIS
   @DF-RHF iter   2:  -227.76968356246044   -9.57352e-02   6.38494e-03 DIIS/ADIIS
   @DF-RHF iter   3:  -227.80805859864796   -3.83750e-02   1.06878e-03 DIIS/ADIIS
   @DF-RHF iter   4:  -227.80993048497021   -1.87189e-03   4.20050e-04 DIIS/ADIIS
   @DF-RHF iter   5:  -227.81024848751164   -3.18003e-04   1.03509e-04 DIIS/ADIIS
   @DF-RHF iter   6:  -227.81028124587615   -3.27584e-05   5.00232e-05 DIIS
   @DF-RHF iter   7:  -227.81028925503534   -8.00916e-06   1.67378e-05 DIIS
   @DF-RHF iter   8:  -227.81029035095759   -1.09592e-06   4.57017e-06 DIIS
   @DF-RHF iter   9:  -227.81029043567074   -8.47132e-08   8.71373e-07 DIIS
  Energy and wave function converged.


  ==> Post-Iterations <==

    Orbital Energies [Eh]
    ---------------------

    Doubly Occupied:                                                      

       1Ap   -20.615370     2Ap   -20.553268     3Ap   -11.386018  
       4Ap   -11.240483     5Ap    -1.477175     6Ap    -1.368197  
       7Ap    -1.027199     8Ap    -0.831485     9Ap    -0.702647  
      10Ap    -0.683124     1App   -0.653675    11Ap    -0.581735  
      12Ap    -0.572252     2App   -0.562216     3App   -0.480404  
      13Ap    -0.449171  

    Virtual:                                                              

       4App    0.193128    14Ap     0.226895    15Ap     0.259331  
      16Ap     0.309105     5App    0.328774    17Ap     0.398399  
      18Ap     0.479557    19Ap     0.523182     6App    0.730786  
      20Ap     0.763438    21Ap     0.808767    22Ap     0.820802  
       7App    0.824643    23Ap     0.953120    24Ap     1.004773  
      25Ap     1.071232    26Ap     1.106893     8App    1.125663  
      27Ap     1.163208    28Ap     1.209854     9App    1.213181  
      29Ap     1.250408    30Ap     1.325811    10App    1.328902  
      31Ap     1.350886    32Ap     1.598115    11App    1.636077  
      12App    1.676098    33Ap     1.764096    34Ap     1.858989  
      13App    2.001155    35Ap     2.027555    14App    2.096641  
      36Ap     2.101068    37Ap     2.145710    38Ap     2.243935  
      15App    2.302197    39Ap     2.384862    16App    2.535440  
      40Ap     2.555539    41Ap     2.652676    17App    2.795933  
      42Ap     2.823082    18App    3.010754    43Ap     3.084202  
      44Ap     3.228901    45Ap     3.359023    46Ap     3.468113  
      47Ap     4.228754    48Ap     4.461892    49Ap     4.587300  
      50Ap     4.856778  

    Final Occupation by Irrep:
             Ap   App 
    DOCC [    13,    3 ]
    NA   [    13,    3 ]
    NB   [    13,    3 ]

  @DF-RHF Final Energy:  -227.81029043567074

   => Energetics <=

    Nuclear Repulsion Energy =            122.4563318126148346
    One-Electron Energy =                -554.1643877599060488
    Two-Electron Energy =                 203.8977655116204630
    Total Energy =                       -227.8102904356707370

Computation Completed


Properties will be evaluated at   0.000000,   0.000000,   0.000000 [a0]

Properties computed using the SCF density matrix


 Multipole Moments:

 ------------------------------------------------------------------------------------
     Multipole            Electronic (a.u.)      Nuclear  (a.u.)        Total (a.u.)
 ------------------------------------------------------------------------------------

 L = 1.  Multiply by 2.5417464519 to convert [e a0] to [Debye]
 Dipole X            :         -3.2705647            3.5784490            0.3078843
 Dipole Y            :          0.5484743           -1.1834077           -0.6349334
 Dipole Z            :          0.0000000            0.0000000            0.0000000
 Magnitude           :                                                    0.7056438

 ------------------------------------------------------------------------------------

 Electrostatic potential to be computed on the grid and written to grid_esp.dat

*** tstop() called on adirondacks at Wed Apr 29 16:40:17 2026
Module time:
	user time   =       0.52 seconds =       0.01 minutes
	system time =       0.02 seconds =       0.00 minutes
	total time  =          1 seconds =       0.02 minutes
Total time:
	user time   =       1.28 seconds =       0.02 minutes
	system time =       0.04 seconds =       0.00 minutes
	total time  =          1 seconds =       0.02 minutes
