
    -----------------------------------------------------------------------
          Psi4: An Open-Source Ab Initio Electronic Structure Package
                               Psi4 1.9.1 release

                         Git: Rev {} zzzzzzz 


    D. G. A. Smith, L. A. Burns, A. C. Simmonett, R. M. Parrish,
    M. C. Schieber, R. Galvelis, P. Kraus, H. Kruse, R. Di Remigio,
    A. Alenaizan, A. M. James, S. Lehtola, J. P. Misiewicz, M. Scheurer,
    R. A. Shaw, J. B. Schriber, Y. Xie, Z. L. Glick, D. A. Sirianni,
    J. S. O'Brien, J. M. Waldrop, A. Kumar, E. G. Hohenstein,
    B. P. Pritchard, B. R. Brooks, H. F. Schaefer III, A. Yu. Sokolov,
    K. Patkowski, A. E. DePrince III, U. Bozkaya, R. A. King,
    F. A. Evangelista, J. M. Turney, T. D. Crawford, C. D. Sherrill,
    J. Chem. Phys. 152(18) 184108 (2020). https://doi.org/10.1063/5.0006002

                            Additional Code Authors
    E. T. Seidl, C. L. Janssen, E. F. Valeev, M. L. Leininger,
    J. F. Gonthier, R. M. Richard, H. R. McAlexander, M. Saitow, X. Wang,
    P. Verma, M. H. Lechner, A. Jiang, S. Behnle, A. G. Heide,
    M. F. Herbst, and D. L. Poole

             Previous Authors, Complete List of Code Contributors,
                       and Citations for Specific Modules
    https://github.com/psi4/psi4/blob/master/codemeta.json
    https://github.com/psi4/psi4/graphs/contributors
    http://psicode.org/psi4manual/master/introduction.html#citing-psifour

    -----------------------------------------------------------------------


    Psi4 started on: Wednesday, 29 April 2026 04:40PM

    Process ID: 5876
    Host:       adirondacks
    PSIDATADIR: /home/karl/conda/envs/psi4/share/psi4
    Memory:     500.0 MiB
    Threads:    1
    
*** tstart() called on adirondacks
*** at Wed Apr 29 16:40:18 2026

   => Libint2 <=

    Primary   basis highest AM E, G, H:  6, 6, 3
    Auxiliary basis highest AM E, G, H:  7, 7, 4
    Onebody   basis highest AM E, G, H:  -, -, -
    Solid Harmonics ordering:            Gaussian
   => Loading Basis Set <=

    Name: ANONYMOUS88A91162
    Role: ORBITAL
    Keyword: BASIS
    atoms 1, 4   entry C          line   111 file /home/karl/conda/envs/psi4/share/psi4/basis/6-31gs.gbs 
    atoms 2-3, 6 entry H          line    44 file /home/karl/conda/envs/psi4/share/psi4/basis/6-31gs.gbs 
    atoms 5      entry BR         line   968 file /home/karl/conda/envs/psi4/share/psi4/basis/6-31gs.gbs 


         ---------------------------------------------------------
                                   SCF
               by Justin Turney, Rob Parrish, Andy Simmonett
                          and Daniel G. A. Smith
                              RHF Reference
                        1 Threads,    500 MiB Core
         ---------------------------------------------------------

  ==> Geometry <==

    Molecular point group: c1
    Full point group: C1

    Geometry (in Angstrom), charge = 0, multiplicity = 1:

       Center              X                  Y                   Z               Mass       
    ------------   -----------------  -----------------  -----------------  -----------------
         C           -0.510000000000    -0.427000000000     0.084000000000    12.000000000000
         H           -0.902000000000    -0.573000000000     1.075000000000     1.007825032230
         H           -0.963000000000    -0.979000000000    -0.717000000000     1.007825032230
         C            0.487000000000     0.404000000000    -0.101000000000    12.000000000000
         BR           1.257000000000     0.739000000000    -1.802000000000    78.918337600000
         H            0.956000000000     0.966000000000     0.681000000000     1.007825032230

  Running in c1 symmetry.

  Rotational constants: A =      1.78832  B =      0.03902  C =      0.03819 [cm^-1]
  Rotational constants: A =  53612.41727  B =   1169.81761  C =   1144.83738 [MHz]
  Nuclear repulsion =  144.781586928903778

  Charge       = 0
  Multiplicity = 1
  Electrons    = 50
  Nalpha       = 25
  Nbeta        = 25

  ==> Algorithm <==

  SCF Algorithm Type is DF.
  DIIS enabled.
  MOM disabled.
  Fractional occupation disabled.
  Guess Type is SAD.
  Energy threshold   = 1.00e-06
  Density threshold  = 1.00e-06
  Integral threshold = 1.00e-12

  ==> Primary Basis <==

  Basis Set: ANONYMOUS88A91162
    Blend: 6-31G*
    Number of shells: 30
    Number of basis functions: 71
    Number of Cartesian functions: 71
    Spherical Harmonics?: false
    Max angular momentum: 2

   => Loading Basis Set <=

    Name: (ANONYMOUS88A91162 AUX)
    Role: JKFIT
    Keyword: DF_BASIS_SCF
    atoms 1, 4   entry C          line   121 file /home/karl/conda/envs/psi4/share/psi4/basis/cc-pvdz-jkfit.gbs 
    atoms 2-3, 6 entry H          line    51 file /home/karl/conda/envs/psi4/share/psi4/basis/cc-pvdz-jkfit.gbs 
    atoms 5      entry BR         line  1219 file /home/karl/conda/envs/psi4/share/psi4/basis/cc-pvdz-jkfit.gbs 

  ==> Integral Setup <==

  DFHelper Memory: AOs need 0.019 GiB; user supplied 0.366 GiB. 
  Using in-core AOs.

  ==> MemDFJK: Density-Fitted J/K Matrices <==

    J tasked:                   Yes
    K tasked:                   Yes
    wK tasked:                   No
    OpenMP threads:               1
    Memory [MiB]:               375
    Algorithm:                 Core
    Schwarz Cutoff:           1E-12
    Mask sparsity (%):       1.4680
    Fitting Condition:        1E-10

   => Auxiliary Basis Set <=

  Basis Set: (ANONYMOUS88A91162 AUX)
    Blend: CC-PVDZ-JKFIT
    Number of shells: 122
    Number of basis functions: 446
    Number of Cartesian functions: 446
    Spherical Harmonics?: false
    Max angular momentum: 3

  Minimum eigenvalue in the overlap matrix is 7.2348166200E-04.
  Reciprocal condition number of the overlap matrix is 1.1311192638E-04.
    Using symmetric orthogonalization.

  ==> Pre-Iterations <==

  SCF Guess: Superposition of Atomic Densities via on-the-fly atomic UHF (no occupation information).

   -------------------------
    Irrep   Nso     Nmo    
   -------------------------
     A         71      71 
   -------------------------
    Total      71      71
   -------------------------

  ==> Iterations <==

                           Total Energy        Delta E     RMS |[F,P]|

   @DF-RHF iter SAD: -2646.70797113214712   -2.64671e+03   0.00000e+00 
   @DF-RHF iter   1: -2648.66140370078347   -1.95343e+00   1.75629e-02 DIIS/ADIIS
   @DF-RHF iter   2: -2648.82347050450153   -1.62067e-01   1.00571e-02 DIIS/ADIIS
   @DF-RHF iter   3: -2648.88142064013527   -5.79501e-02   6.66565e-04 DIIS/ADIIS
   @DF-RHF iter   4: -2648.88239108010384   -9.70440e-04   1.82793e-04 DIIS/ADIIS
   @DF-RHF iter   5: -2648.88252824830806   -1.37168e-04   4.83285e-05 DIIS
   @DF-RHF iter   6: -2648.88254634390523   -1.80956e-05   2.29821e-05 DIIS
   @DF-RHF iter   7: -2648.88254916843835   -2.82453e-06   6.38628e-06 DIIS
   @DF-RHF iter   8: -2648.88254944254004   -2.74102e-07   2.15725e-06 DIIS
   @DF-RHF iter   9: -2648.88254946493180   -2.23918e-08   3.55760e-07 DIIS
  Energy and wave function converged.


  ==> Post-Iterations <==

    Orbital Energies [Eh]
    ---------------------

    Doubly Occupied:                                                      

       1A   -490.100038     2A    -65.257450     3A    -58.619937  
       4A    -58.618294     5A    -58.618266     6A    -11.298563  
       7A    -11.250108     8A     -9.881462     9A     -7.493802  
      10A     -7.484818    11A     -7.484781    12A     -3.077402  
      13A     -3.073140    14A     -3.072953    15A     -3.063247  
      16A     -3.063241    17A     -1.103503    18A     -0.987034  
      19A     -0.790278    20A     -0.658701    21A     -0.608169  
      22A     -0.500425    23A     -0.472197    24A     -0.413392  
      25A     -0.364369  

    Virtual:                                                              

      26A      0.155930    27A      0.162223    28A      0.250183  
      29A      0.280601    30A      0.341082    31A      0.367393  
      32A      0.447516    33A      0.491919    34A      0.504499  
      35A      0.544855    36A      0.617223    37A      0.727468  
      38A      0.736800    39A      0.818835    40A      0.834602  
      41A      0.853676    42A      0.899210    43A      0.933504  
      44A      1.050761    45A      1.071825    46A      1.136609  
      47A      1.148612    48A      1.188465    49A      1.197519  
      50A      1.339139    51A      1.507802    52A      1.718965  
      53A      1.824899    54A      2.011116    55A      2.148668  
      56A      2.205330    57A      2.296064    58A      2.401400  
      59A      2.613343    60A      2.700505    61A      3.025596  
      62A      3.071804    63A      4.501747    64A      4.636744  
      65A      5.355769    66A      5.363632    67A      5.407141  
      68A      5.464738    69A      5.610790    70A      6.792083  
      71A     92.333859  

    Final Occupation by Irrep:
              A 
    DOCC [    25 ]
    NA   [    25 ]
    NB   [    25 ]

  @DF-RHF Final Energy: -2648.88254946493180

   => Energetics <=

    Nuclear Repulsion Energy =            144.7815869289037778
    One-Electron Energy =               -3972.6171141993509082
    Two-Electron Energy =                1178.9529778055150473
    Total Energy =                      -2648.8825494649317989

Computation Completed


Properties will be evaluated at   0.000000,   0.000000,   0.000000 [a0]

Properties computed using the SCF density matrix


 Multipole Moments:

 ------------------------------------------------------------------------------------
     Multipole            Electronic (a.u.)      Nuclear  (a.u.)        Total (a.u.)
 ------------------------------------------------------------------------------------

 L = 1.  Multiply by 2.5417464519 to convert [e a0] to [Debye]
 Dipole X            :        -81.5158033           81.1599576           -0.3558457
 Dipole Y            :        -47.6948536           47.5096045           -0.1852491
 Dipole Z            :        118.0462732         -117.4143534            0.6319199
 Magnitude           :                                                    0.7485093

 ------------------------------------------------------------------------------------

 Electrostatic potential to be computed on the grid and written to grid_esp.dat

*** tstop() called on adirondacks at Wed Apr 29 16:40:19 2026
Module time:
	user time   =       0.60 seconds =       0.01 minutes
	system time =       0.03 seconds =       0.00 minutes
	total time  =          1 seconds =       0.02 minutes
Total time:
	user time   =       3.05 seconds =       0.05 minutes
	system time =       0.09 seconds =       0.00 minutes
	total time  =          3 seconds =       0.05 minutes
