
    -----------------------------------------------------------------------
          Psi4: An Open-Source Ab Initio Electronic Structure Package
                               Psi4 1.9.1 release

                         Git: Rev {} zzzzzzz 


    D. G. A. Smith, L. A. Burns, A. C. Simmonett, R. M. Parrish,
    M. C. Schieber, R. Galvelis, P. Kraus, H. Kruse, R. Di Remigio,
    A. Alenaizan, A. M. James, S. Lehtola, J. P. Misiewicz, M. Scheurer,
    R. A. Shaw, J. B. Schriber, Y. Xie, Z. L. Glick, D. A. Sirianni,
    J. S. O'Brien, J. M. Waldrop, A. Kumar, E. G. Hohenstein,
    B. P. Pritchard, B. R. Brooks, H. F. Schaefer III, A. Yu. Sokolov,
    K. Patkowski, A. E. DePrince III, U. Bozkaya, R. A. King,
    F. A. Evangelista, J. M. Turney, T. D. Crawford, C. D. Sherrill,
    J. Chem. Phys. 152(18) 184108 (2020). https://doi.org/10.1063/5.0006002

                            Additional Code Authors
    E. T. Seidl, C. L. Janssen, E. F. Valeev, M. L. Leininger,
    J. F. Gonthier, R. M. Richard, H. R. McAlexander, M. Saitow, X. Wang,
    P. Verma, M. H. Lechner, A. Jiang, S. Behnle, A. G. Heide,
    M. F. Herbst, and D. L. Poole

             Previous Authors, Complete List of Code Contributors,
                       and Citations for Specific Modules
    https://github.com/psi4/psi4/blob/master/codemeta.json
    https://github.com/psi4/psi4/graphs/contributors
    http://psicode.org/psi4manual/master/introduction.html#citing-psifour

    -----------------------------------------------------------------------


    Psi4 started on: Wednesday, 29 April 2026 04:40PM

    Process ID: 5876
    Host:       adirondacks
    PSIDATADIR: /home/karl/conda/envs/psi4/share/psi4
    Memory:     500.0 MiB
    Threads:    1
    
*** tstart() called on adirondacks
*** at Wed Apr 29 16:40:18 2026

   => Libint2 <=

    Primary   basis highest AM E, G, H:  6, 6, 3
    Auxiliary basis highest AM E, G, H:  7, 7, 4
    Onebody   basis highest AM E, G, H:  -, -, -
    Solid Harmonics ordering:            Gaussian
   => Loading Basis Set <=

    Name: ANONYMOUS4D5599B0
    Role: ORBITAL
    Keyword: BASIS
    atoms 1-2 entry C          line   111 file /home/karl/conda/envs/psi4/share/psi4/basis/6-31gs.gbs 
    atoms 3   entry O          line   145 file /home/karl/conda/envs/psi4/share/psi4/basis/6-31gs.gbs 
    atoms 4-9 entry H          line    44 file /home/karl/conda/envs/psi4/share/psi4/basis/6-31gs.gbs 


         ---------------------------------------------------------
                                   SCF
               by Justin Turney, Rob Parrish, Andy Simmonett
                          and Daniel G. A. Smith
                              RHF Reference
                        1 Threads,    500 MiB Core
         ---------------------------------------------------------

  ==> Geometry <==

    Molecular point group: c1
    Full point group: C1

    Geometry (in Angstrom), charge = 0, multiplicity = 1:

       Center              X                  Y                   Z               Mass       
    ------------   -----------------  -----------------  -----------------  -----------------
         C            0.000000000000     0.000000000000     0.000000000000    12.000000000000
         C            1.480135000000    -0.007243000000     0.394422000000    12.000000000000
         O            2.006963000000     1.292241000000     0.262328000000    15.994914619570
         H            2.915479000000     1.255729000000     0.509723000000     1.007825032230
         H            1.615007000000    -0.326780000000     1.455877000000     1.007825032230
         H            2.071975000000    -0.686951000000    -0.264934000000     1.007825032230
         H           -0.325000120000     1.022934150000    -0.300340940000     1.007825032230
         H           -0.188921410000    -0.684639060000    -0.858938150000     1.007825032230
         H           -0.642570650000    -0.327091110000     0.849874820000     1.007825032230

  Running in c1 symmetry.

  Rotational constants: A =      1.11614  B =      0.12722  C =      0.11955 [cm^-1]
  Rotational constants: A =  33461.06137  B =   3813.86435  C =   3583.99902 [MHz]
  Nuclear repulsion =   81.454791848633320

  Charge       = 0
  Multiplicity = 1
  Electrons    = 26
  Nalpha       = 13
  Nbeta        = 13

  ==> Algorithm <==

  SCF Algorithm Type is DF.
  DIIS enabled.
  MOM disabled.
  Fractional occupation disabled.
  Guess Type is SAD.
  Energy threshold   = 1.00e-06
  Density threshold  = 1.00e-06
  Integral threshold = 1.00e-12

  ==> Primary Basis <==

  Basis Set: ANONYMOUS4D5599B0
    Blend: 6-31G*
    Number of shells: 30
    Number of basis functions: 57
    Number of Cartesian functions: 57
    Spherical Harmonics?: false
    Max angular momentum: 2

   => Loading Basis Set <=

    Name: (ANONYMOUS4D5599B0 AUX)
    Role: JKFIT
    Keyword: DF_BASIS_SCF
    atoms 1-2 entry C          line   121 file /home/karl/conda/envs/psi4/share/psi4/basis/cc-pvdz-jkfit.gbs 
    atoms 3   entry O          line   221 file /home/karl/conda/envs/psi4/share/psi4/basis/cc-pvdz-jkfit.gbs 
    atoms 4-9 entry H          line    51 file /home/karl/conda/envs/psi4/share/psi4/basis/cc-pvdz-jkfit.gbs 

  ==> Integral Setup <==

  DFHelper Memory: AOs need 0.011 GiB; user supplied 0.366 GiB. 
  Using in-core AOs.

  ==> MemDFJK: Density-Fitted J/K Matrices <==

    J tasked:                   Yes
    K tasked:                   Yes
    wK tasked:                   No
    OpenMP threads:               1
    Memory [MiB]:               375
    Algorithm:                 Core
    Schwarz Cutoff:           1E-12
    Mask sparsity (%):       0.0616
    Fitting Condition:        1E-10

   => Auxiliary Basis Set <=

  Basis Set: (ANONYMOUS4D5599B0 AUX)
    Blend: CC-PVDZ-JKFIT
    Number of shells: 126
    Number of basis functions: 393
    Number of Cartesian functions: 393
    Spherical Harmonics?: false
    Max angular momentum: 3

  Minimum eigenvalue in the overlap matrix is 5.6683463339E-03.
  Reciprocal condition number of the overlap matrix is 8.6166426980E-04.
    Using symmetric orthogonalization.

  ==> Pre-Iterations <==

  SCF Guess: Superposition of Atomic Densities via on-the-fly atomic UHF (no occupation information).

   -------------------------
    Irrep   Nso     Nmo    
   -------------------------
     A         57      57 
   -------------------------
    Total      57      57
   -------------------------

  ==> Iterations <==

                           Total Energy        Delta E     RMS |[F,P]|

   @DF-RHF iter SAD:  -153.28118562975382   -1.53281e+02   0.00000e+00 
   @DF-RHF iter   1:  -153.97437992710161   -6.93194e-01   7.30360e-03 DIIS/ADIIS
   @DF-RHF iter   2:  -154.04802041479499   -7.36405e-02   3.79348e-03 DIIS/ADIIS
   @DF-RHF iter   3:  -154.06520027766322   -1.71799e-02   6.37169e-04 DIIS/ADIIS
   @DF-RHF iter   4:  -154.06614707070446   -9.46793e-04   1.79649e-04 DIIS/ADIIS
   @DF-RHF iter   5:  -154.06620856998828   -6.14993e-05   3.91374e-05 DIIS
   @DF-RHF iter   6:  -154.06621236064564   -3.79066e-06   6.64353e-06 DIIS
   @DF-RHF iter   7:  -154.06621251125122   -1.50606e-07   1.51801e-06 DIIS
   @DF-RHF iter   8:  -154.06621251826496   -7.01374e-09   5.04636e-07 DIIS
  Energy and wave function converged.


  ==> Post-Iterations <==

    Orbital Energies [Eh]
    ---------------------

    Doubly Occupied:                                                      

       1A    -20.551403     2A    -11.279499     3A    -11.221195  
       4A     -1.360229     5A     -1.000956     6A     -0.828327  
       7A     -0.697654     8A     -0.638872     9A     -0.565301  
      10A     -0.525075    11A     -0.523172    12A     -0.483095  
      13A     -0.428248  

    Virtual:                                                              

      14A      0.220302    15A      0.265678    16A      0.274138  
      17A      0.298505    18A      0.324150    19A      0.383785  
      20A      0.407886    21A      0.436566    22A      0.741917  
      23A      0.756776    24A      0.794127    25A      0.846091  
      26A      0.918382    27A      0.987471    28A      1.074722  
      29A      1.093005    30A      1.119519    31A      1.146603  
      32A      1.155404    33A      1.189544    34A      1.217430  
      35A      1.276740    36A      1.288866    37A      1.402068  
      38A      1.581896    39A      1.685872    40A      1.773453  
      41A      1.943133    42A      2.037010    43A      2.112219  
      44A      2.258785    45A      2.268150    46A      2.366548  
      47A      2.423603    48A      2.537561    49A      2.667229  
      50A      2.742848    51A      2.763269    52A      2.861486  
      53A      2.970749    54A      3.210936    55A      4.162519  
      56A      4.567955    57A      4.842019  

    Final Occupation by Irrep:
              A 
    DOCC [    13 ]
    NA   [    13 ]
    NB   [    13 ]

  @DF-RHF Final Energy:  -154.06621251826496

   => Energetics <=

    Nuclear Repulsion Energy =             81.4547918486333202
    One-Electron Energy =                -370.8360333342100716
    Two-Electron Energy =                 135.3150289673118039
    Total Energy =                       -154.0662125182649618

Computation Completed


Properties will be evaluated at   0.000000,   0.000000,   0.000000 [a0]

Properties computed using the SCF density matrix


 Multipole Moments:

 ------------------------------------------------------------------------------------
     Multipole            Electronic (a.u.)      Nuclear  (a.u.)        Total (a.u.)
 ------------------------------------------------------------------------------------

 L = 1.  Multiply by 2.5417464519 to convert [e a0] to [Debye]
 Dipole X            :        -57.0775820           57.4145715            0.3369896
 Dipole Y            :        -20.4824535           19.9322113           -0.5502422
 Dipole Z            :        -10.8634429           11.0670256            0.2035827
 Magnitude           :                                                    0.6765902

 ------------------------------------------------------------------------------------

 Electrostatic potential to be computed on the grid and written to grid_esp.dat

*** tstop() called on adirondacks at Wed Apr 29 16:40:18 2026
Module time:
	user time   =       0.49 seconds =       0.01 minutes
	system time =       0.00 seconds =       0.00 minutes
	total time  =          0 seconds =       0.00 minutes
Total time:
	user time   =       2.36 seconds =       0.04 minutes
	system time =       0.06 seconds =       0.00 minutes
	total time  =          2 seconds =       0.03 minutes
