
    -----------------------------------------------------------------------
          Psi4: An Open-Source Ab Initio Electronic Structure Package
                               Psi4 1.9.1 release

                         Git: Rev {} zzzzzzz 


    D. G. A. Smith, L. A. Burns, A. C. Simmonett, R. M. Parrish,
    M. C. Schieber, R. Galvelis, P. Kraus, H. Kruse, R. Di Remigio,
    A. Alenaizan, A. M. James, S. Lehtola, J. P. Misiewicz, M. Scheurer,
    R. A. Shaw, J. B. Schriber, Y. Xie, Z. L. Glick, D. A. Sirianni,
    J. S. O'Brien, J. M. Waldrop, A. Kumar, E. G. Hohenstein,
    B. P. Pritchard, B. R. Brooks, H. F. Schaefer III, A. Yu. Sokolov,
    K. Patkowski, A. E. DePrince III, U. Bozkaya, R. A. King,
    F. A. Evangelista, J. M. Turney, T. D. Crawford, C. D. Sherrill,
    J. Chem. Phys. 152(18) 184108 (2020). https://doi.org/10.1063/5.0006002

                            Additional Code Authors
    E. T. Seidl, C. L. Janssen, E. F. Valeev, M. L. Leininger,
    J. F. Gonthier, R. M. Richard, H. R. McAlexander, M. Saitow, X. Wang,
    P. Verma, M. H. Lechner, A. Jiang, S. Behnle, A. G. Heide,
    M. F. Herbst, and D. L. Poole

             Previous Authors, Complete List of Code Contributors,
                       and Citations for Specific Modules
    https://github.com/psi4/psi4/blob/master/codemeta.json
    https://github.com/psi4/psi4/graphs/contributors
    http://psicode.org/psi4manual/master/introduction.html#citing-psifour

    -----------------------------------------------------------------------


    Psi4 started on: Thursday, 30 April 2026 09:06AM

    Process ID: 9759
    Host:       eifel
    PSIDATADIR: /home/karl/miniconda3/envs/psi4/share/psi4
    Memory:     500.0 MiB
    Threads:    1
    
*** tstart() called on eifel
*** at Thu Apr 30 09:06:04 2026

   => Libint2 <=

    Primary   basis highest AM E, G, H:  6, 6, 3
    Auxiliary basis highest AM E, G, H:  7, 7, 4
    Onebody   basis highest AM E, G, H:  -, -, -
    Solid Harmonics ordering:            Gaussian
   => Loading Basis Set <=

    Name: ANONYMOUS07C10FE1
    Role: ORBITAL
    Keyword: BASIS
    atoms 1-2 entry C          line   111 file /home/karl/miniconda3/envs/psi4/share/psi4/basis/6-31gs.gbs 
    atoms 3   entry O          line   145 file /home/karl/miniconda3/envs/psi4/share/psi4/basis/6-31gs.gbs 
    atoms 4-9 entry H          line    44 file /home/karl/miniconda3/envs/psi4/share/psi4/basis/6-31gs.gbs 


         ---------------------------------------------------------
                                   SCF
               by Justin Turney, Rob Parrish, Andy Simmonett
                          and Daniel G. A. Smith
                              RHF Reference
                        1 Threads,    500 MiB Core
         ---------------------------------------------------------

  ==> Geometry <==

    Molecular point group: c1
    Full point group: C1

    Geometry (in Angstrom), charge = 0, multiplicity = 1:

       Center              X                  Y                   Z               Mass       
    ------------   -----------------  -----------------  -----------------  -----------------
         C            0.000000000000     0.000000000000     0.000000000000    12.000000000000
         C            1.488055400000    -0.007281760000     0.396532600000    12.000000000000
         O            2.049716550000     1.376481530000     0.256048100000    15.994914619570
         H            3.064299780000     1.371516700000     0.526411240000     1.007825032230
         H            1.586794280000    -0.336187610000     1.431023580000     1.007825032230
         H            2.034410100000    -0.689064540000    -0.255210280000     1.007825032230
         H           -0.408140440000    -1.005534660000     0.102085400000     1.007825032230
         H           -0.546354700000     0.681782780000     0.651742880000     1.007825032230
         H           -0.098738880000     0.328905850000    -1.034490970000     1.007825032230

  Running in c1 symmetry.

  Rotational constants: A =      1.07422  B =      0.12113  C =      0.11353 [cm^-1]
  Rotational constants: A =  32204.19926  B =   3631.24897  C =   3403.64238 [MHz]
  Nuclear repulsion =   79.485068996538146

  Charge       = 0
  Multiplicity = 1
  Electrons    = 26
  Nalpha       = 13
  Nbeta        = 13

  ==> Algorithm <==

  SCF Algorithm Type is DF.
  DIIS enabled.
  MOM disabled.
  Fractional occupation disabled.
  Guess Type is SAD.
  Energy threshold   = 1.00e-06
  Density threshold  = 1.00e-06
  Integral threshold = 1.00e-12

  ==> Primary Basis <==

  Basis Set: ANONYMOUS07C10FE1
    Blend: 6-31G*
    Number of shells: 30
    Number of basis functions: 57
    Number of Cartesian functions: 57
    Spherical Harmonics?: false
    Max angular momentum: 2

   => Loading Basis Set <=

    Name: (ANONYMOUS07C10FE1 AUX)
    Role: JKFIT
    Keyword: DF_BASIS_SCF
    atoms 1-2 entry C          line   121 file /home/karl/miniconda3/envs/psi4/share/psi4/basis/cc-pvdz-jkfit.gbs 
    atoms 3   entry O          line   221 file /home/karl/miniconda3/envs/psi4/share/psi4/basis/cc-pvdz-jkfit.gbs 
    atoms 4-9 entry H          line    51 file /home/karl/miniconda3/envs/psi4/share/psi4/basis/cc-pvdz-jkfit.gbs 

  ==> Integral Setup <==

  DFHelper Memory: AOs need 0.011 GiB; user supplied 0.366 GiB. 
  Using in-core AOs.

  ==> MemDFJK: Density-Fitted J/K Matrices <==

    J tasked:                   Yes
    K tasked:                   Yes
    wK tasked:                   No
    OpenMP threads:               1
    Memory [MiB]:               375
    Algorithm:                 Core
    Schwarz Cutoff:           1E-12
    Mask sparsity (%):       0.0616
    Fitting Condition:        1E-10

   => Auxiliary Basis Set <=

  Basis Set: (ANONYMOUS07C10FE1 AUX)
    Blend: CC-PVDZ-JKFIT
    Number of shells: 126
    Number of basis functions: 393
    Number of Cartesian functions: 393
    Spherical Harmonics?: false
    Max angular momentum: 3

  Minimum eigenvalue in the overlap matrix is 6.4657671192E-03.
  Reciprocal condition number of the overlap matrix is 9.9216712214E-04.
    Using symmetric orthogonalization.

  ==> Pre-Iterations <==

  SCF Guess: Superposition of Atomic Densities via on-the-fly atomic UHF (no occupation information).

   -------------------------
    Irrep   Nso     Nmo    
   -------------------------
     A         57      57 
   -------------------------
    Total      57      57
   -------------------------

  ==> Iterations <==

                           Total Energy        Delta E     RMS |[F,P]|

   @DF-RHF iter SAD:  -153.07739014059152   -1.53077e+02   0.00000e+00 
   @DF-RHF iter   1:  -153.96434001751871   -8.86950e-01   7.33753e-03 DIIS/ADIIS
   @DF-RHF iter   2:  -154.03873491080984   -7.43949e-02   4.11703e-03 DIIS/ADIIS
   @DF-RHF iter   3:  -154.05885941532333   -2.01245e-02   7.09177e-04 DIIS/ADIIS
   @DF-RHF iter   4:  -154.06000108018918   -1.14166e-03   2.30742e-04 DIIS/ADIIS
   @DF-RHF iter   5:  -154.06010459420486   -1.03514e-04   4.48411e-05 DIIS
   @DF-RHF iter   6:  -154.06011046269472   -5.86849e-06   9.43002e-06 DIIS
   @DF-RHF iter   7:  -154.06011080013576   -3.37441e-07   2.34944e-06 DIIS
   @DF-RHF iter   8:  -154.06011082233073   -2.21950e-08   7.42141e-07 DIIS
  Energy and wave function converged.


  ==> Post-Iterations <==

    Orbital Energies [Eh]
    ---------------------

    Doubly Occupied:                                                      

       1A    -20.560809     2A    -11.280548     3A    -11.217879  
       4A     -1.303714     5A     -1.007053     6A     -0.831776  
       7A     -0.655791     8A     -0.636510     9A     -0.553886  
      10A     -0.526659    11A     -0.523600    12A     -0.477769  
      13A     -0.440781  

    Virtual:                                                              

      14A      0.210847    15A      0.256072    16A      0.305976  
      17A      0.310515    18A      0.323898    19A      0.345113  
      20A      0.369236    21A      0.399420    22A      0.725704  
      23A      0.753606    24A      0.781646    25A      0.794435  
      26A      0.897721    27A      0.920891    28A      1.050710  
      29A      1.126822    30A      1.132331    31A      1.178051  
      32A      1.186966    33A      1.193073    34A      1.241030  
      35A      1.269962    36A      1.296230    37A      1.437714  
      38A      1.625411    39A      1.719002    40A      1.747870  
      41A      1.909744    42A      2.065641    43A      2.070073  
      44A      2.241715    45A      2.244961    46A      2.303367  
      47A      2.484271    48A      2.518535    49A      2.639352  
      50A      2.647005    51A      2.690102    52A      2.769785  
      53A      2.933508    54A      3.157637    55A      4.087288  
      56A      4.595129    57A      4.821187  

    Final Occupation by Irrep:
              A 
    DOCC [    13 ]
    NA   [    13 ]
    NB   [    13 ]

  @DF-RHF Final Energy:  -154.06011082233073

   => Energetics <=

    Nuclear Repulsion Energy =             79.4850689965381463
    One-Electron Energy =                -367.0569004182393087
    Two-Electron Energy =                 133.5117205993704488
    Total Energy =                       -154.0601108223307278

Computation Completed


Properties will be evaluated at   0.000000,   0.000000,   0.000000 [a0]

Properties computed using the SCF density matrix


 Multipole Moments:

 ------------------------------------------------------------------------------------
     Multipole            Electronic (a.u.)      Nuclear  (a.u.)        Total (a.u.)
 ------------------------------------------------------------------------------------

 L = 1.  Multiply by 2.5417464519 to convert [e a0] to [Debye]
 Dipole X            :        -58.1850753           58.5027743            0.3176991
 Dipole Y            :        -22.0597867           21.3909064           -0.6688803
 Dipole Z            :        -10.8289667           11.0532769            0.2243102
 Magnitude           :                                                    0.7737238

 ------------------------------------------------------------------------------------

 Electrostatic potential to be computed on the grid and written to grid_esp.dat

*** tstop() called on eifel at Thu Apr 30 09:06:04 2026
Module time:
	user time   =       0.26 seconds =       0.00 minutes
	system time =       0.01 seconds =       0.00 minutes
	total time  =          0 seconds =       0.00 minutes
Total time:
	user time   =       1.07 seconds =       0.02 minutes
	system time =       0.08 seconds =       0.00 minutes
	total time  =          1 seconds =       0.02 minutes
