
    -----------------------------------------------------------------------
          Psi4: An Open-Source Ab Initio Electronic Structure Package
                               Psi4 1.9.1 release

                         Git: Rev {} zzzzzzz 


    D. G. A. Smith, L. A. Burns, A. C. Simmonett, R. M. Parrish,
    M. C. Schieber, R. Galvelis, P. Kraus, H. Kruse, R. Di Remigio,
    A. Alenaizan, A. M. James, S. Lehtola, J. P. Misiewicz, M. Scheurer,
    R. A. Shaw, J. B. Schriber, Y. Xie, Z. L. Glick, D. A. Sirianni,
    J. S. O'Brien, J. M. Waldrop, A. Kumar, E. G. Hohenstein,
    B. P. Pritchard, B. R. Brooks, H. F. Schaefer III, A. Yu. Sokolov,
    K. Patkowski, A. E. DePrince III, U. Bozkaya, R. A. King,
    F. A. Evangelista, J. M. Turney, T. D. Crawford, C. D. Sherrill,
    J. Chem. Phys. 152(18) 184108 (2020). https://doi.org/10.1063/5.0006002

                            Additional Code Authors
    E. T. Seidl, C. L. Janssen, E. F. Valeev, M. L. Leininger,
    J. F. Gonthier, R. M. Richard, H. R. McAlexander, M. Saitow, X. Wang,
    P. Verma, M. H. Lechner, A. Jiang, S. Behnle, A. G. Heide,
    M. F. Herbst, and D. L. Poole

             Previous Authors, Complete List of Code Contributors,
                       and Citations for Specific Modules
    https://github.com/psi4/psi4/blob/master/codemeta.json
    https://github.com/psi4/psi4/graphs/contributors
    http://psicode.org/psi4manual/master/introduction.html#citing-psifour

    -----------------------------------------------------------------------


    Psi4 started on: Wednesday, 29 April 2026 04:40PM

    Process ID: 5876
    Host:       adirondacks
    PSIDATADIR: /home/karl/conda/envs/psi4/share/psi4
    Memory:     500.0 MiB
    Threads:    1
    
*** tstart() called on adirondacks
*** at Wed Apr 29 16:40:19 2026

   => Libint2 <=

    Primary   basis highest AM E, G, H:  6, 6, 3
    Auxiliary basis highest AM E, G, H:  7, 7, 4
    Onebody   basis highest AM E, G, H:  -, -, -
    Solid Harmonics ordering:            Gaussian
   => Loading Basis Set <=

    Name: ANONYMOUS686495C7
    Role: ORBITAL
    Keyword: BASIS
    atoms 1      entry C          line   111 file /home/karl/conda/envs/psi4/share/psi4/basis/6-31gs.gbs 
    atoms 2-4, 6 entry H          line    44 file /home/karl/conda/envs/psi4/share/psi4/basis/6-31gs.gbs 
    atoms 5      entry O          line   145 file /home/karl/conda/envs/psi4/share/psi4/basis/6-31gs.gbs 


         ---------------------------------------------------------
                                   SCF
               by Justin Turney, Rob Parrish, Andy Simmonett
                          and Daniel G. A. Smith
                              RHF Reference
                        1 Threads,    500 MiB Core
         ---------------------------------------------------------

  ==> Geometry <==

    Molecular point group: cs
    Full point group: Cs

    Geometry (in Angstrom), charge = 0, multiplicity = 1:

       Center              X                  Y                   Z               Mass       
    ------------   -----------------  -----------------  -----------------  -----------------
         C           -0.710650365237    -0.100637307108     0.000000000000    12.000000000000
         H           -1.206679386802     0.859890958129     0.000000000000     1.007825032230
         H           -1.026805388068    -0.650089245759     0.883535664740     1.007825032230
         H           -1.026805388068    -0.650089245759    -0.883535664740     1.007825032230
         O            0.667103139113     0.145896132003     0.000000000000    15.994914619570
         H            1.134471393611    -0.676918780614     0.000000000000     1.007825032230

  Running in cs symmetry.

  Rotational constants: A =      4.37209  B =      0.84796  C =      0.81877 [cm^-1]
  Rotational constants: A = 131072.09411  B =  25421.14418  C =  24546.04476 [MHz]
  Nuclear repulsion =   40.786395201359113

  Charge       = 0
  Multiplicity = 1
  Electrons    = 18
  Nalpha       = 9
  Nbeta        = 9

  ==> Algorithm <==

  SCF Algorithm Type is DF.
  DIIS enabled.
  MOM disabled.
  Fractional occupation disabled.
  Guess Type is SAD.
  Energy threshold   = 1.00e-06
  Density threshold  = 1.00e-06
  Integral threshold = 1.00e-12

  ==> Primary Basis <==

  Basis Set: ANONYMOUS686495C7
    Blend: 6-31G*
    Number of shells: 20
    Number of basis functions: 38
    Number of Cartesian functions: 38
    Spherical Harmonics?: false
    Max angular momentum: 2

   => Loading Basis Set <=

    Name: (ANONYMOUS686495C7 AUX)
    Role: JKFIT
    Keyword: DF_BASIS_SCF
    atoms 1      entry C          line   121 file /home/karl/conda/envs/psi4/share/psi4/basis/cc-pvdz-jkfit.gbs 
    atoms 2-4, 6 entry H          line    51 file /home/karl/conda/envs/psi4/share/psi4/basis/cc-pvdz-jkfit.gbs 
    atoms 5      entry O          line   221 file /home/karl/conda/envs/psi4/share/psi4/basis/cc-pvdz-jkfit.gbs 

  ==> Integral Setup <==

  DFHelper Memory: AOs need 0.004 GiB; user supplied 0.366 GiB. 
  Using in-core AOs.

  ==> MemDFJK: Density-Fitted J/K Matrices <==

    J tasked:                   Yes
    K tasked:                   Yes
    wK tasked:                   No
    OpenMP threads:               1
    Memory [MiB]:               375
    Algorithm:                 Core
    Schwarz Cutoff:           1E-12
    Mask sparsity (%):       0.0000
    Fitting Condition:        1E-10

   => Auxiliary Basis Set <=

  Basis Set: (ANONYMOUS686495C7 AUX)
    Blend: CC-PVDZ-JKFIT
    Number of shells: 84
    Number of basis functions: 262
    Number of Cartesian functions: 262
    Spherical Harmonics?: false
    Max angular momentum: 3

  Minimum eigenvalue in the overlap matrix is 9.2216791491E-03.
  Reciprocal condition number of the overlap matrix is 1.5763580157E-03.
    Using symmetric orthogonalization.

  ==> Pre-Iterations <==

  SCF Guess: Superposition of Atomic Densities via on-the-fly atomic UHF (no occupation information).

   -------------------------
    Irrep   Nso     Nmo    
   -------------------------
     A'        28      28 
     A"        10      10 
   -------------------------
    Total      38      38
   -------------------------

  ==> Iterations <==

                           Total Energy        Delta E     RMS |[F,P]|

   @DF-RHF iter SAD:  -114.44089636747529   -1.14441e+02   0.00000e+00 
   @DF-RHF iter   1:  -114.97381338823639   -5.32917e-01   1.19549e-02 DIIS/ADIIS
   @DF-RHF iter   2:  -115.02248537564049   -4.86720e-02   6.32646e-03 DIIS/ADIIS
   @DF-RHF iter   3:  -115.03467088920817   -1.21855e-02   1.08230e-03 DIIS/ADIIS
   @DF-RHF iter   4:  -115.03531972908431   -6.48840e-04   2.27768e-04 DIIS/ADIIS
   @DF-RHF iter   5:  -115.03535173344230   -3.20044e-05   5.97576e-05 DIIS
   @DF-RHF iter   6:  -115.03535395613575   -2.22269e-06   1.31522e-05 DIIS
   @DF-RHF iter   7:  -115.03535413291338   -1.76778e-07   2.83146e-06 DIIS
   @DF-RHF iter   8:  -115.03535414304984   -1.01365e-08   5.05850e-07 DIIS
  Energy and wave function converged.


  ==> Post-Iterations <==

    Orbital Energies [Eh]
    ---------------------

    Doubly Occupied:                                                      

       1Ap   -20.555375     2Ap   -11.266759     3Ap    -1.360291  
       4Ap    -0.926848     5Ap    -0.693626     1App   -0.620847  
       6Ap    -0.595335     7Ap    -0.497351     2App   -0.443292  

    Virtual:                                                              

       8Ap     0.226850     9Ap     0.280356    10Ap     0.323828  
       3App    0.330609    11Ap     0.387580    12Ap     0.762332  
       4App    0.774497    13Ap     0.798651    14Ap     1.055550  
       5App    1.130356    15Ap     1.151906    16Ap     1.189568  
      17Ap     1.218157     6App    1.253819    18Ap     1.270444  
      19Ap     1.409841    20Ap     1.725234     7App    1.776687  
      21Ap     1.872470     8App    2.032982    22Ap     2.388357  
      23Ap     2.456664     9App    2.478716    24Ap     2.705501  
      10App    2.757112    25Ap     2.824496    26Ap     3.168217  
      27Ap     4.136167    28Ap     4.642614  

    Final Occupation by Irrep:
             Ap   App 
    DOCC [     7,    2 ]
    NA   [     7,    2 ]
    NB   [     7,    2 ]

  @DF-RHF Final Energy:  -115.03535414304984

   => Energetics <=

    Nuclear Repulsion Energy =             40.7863952013591131
    One-Electron Energy =                -237.7240536437163883
    Two-Electron Energy =                  81.9023042993074313
    Total Energy =                       -115.0353541430498439

Computation Completed


Properties will be evaluated at   0.000000,   0.000000,   0.000000 [a0]

Properties computed using the SCF density matrix


 Multipole Moments:

 ------------------------------------------------------------------------------------
     Multipole            Electronic (a.u.)      Nuclear  (a.u.)        Total (a.u.)
 ------------------------------------------------------------------------------------

 L = 1.  Multiply by 2.5417464519 to convert [e a0] to [Debye]
 Dipole X            :          1.6878995           -1.9896848           -0.3017853
 Dipole Y            :          0.3768369           -1.0466458           -0.6698089
 Dipole Z            :          0.0000000            0.0000000            0.0000000
 Magnitude           :                                                    0.7346552

 ------------------------------------------------------------------------------------

 Electrostatic potential to be computed on the grid and written to grid_esp.dat

*** tstop() called on adirondacks at Wed Apr 29 16:40:19 2026
Module time:
	user time   =       0.27 seconds =       0.00 minutes
	system time =       0.00 seconds =       0.00 minutes
	total time  =          0 seconds =       0.00 minutes
Total time:
	user time   =       3.40 seconds =       0.06 minutes
	system time =       0.09 seconds =       0.00 minutes
	total time  =          3 seconds =       0.05 minutes
